
 define (gplogin2.gp.local) : TURBOMOLE V7.2 ( 21454 ) 2 Oct 2017 at 18:01:17
 Copyright (C) 2017 TURBOMOLE GmbH, Karlsruhe


    2020-08-05 00:42:08.337 

                    HOST NAME = gplogin2.gp.local
             OPERATING SYSTEM = unix
   STANDARD BASIS SET LIBRARY = /sopt/TURBOMOLE/7.2.1-official/basen/
  ALTERNATE BASIS SET LIBRARY = /sopt/TURBOMOLE/7.2.1-official/basold/
 LIBRARY FOR RI-J  BASIS SETS = /sopt/TURBOMOLE/7.2.1-official/jbasen/
 LIBRARY FOR RI-JK BASIS SETS = /sopt/TURBOMOLE/7.2.1-official/jkbasen/
 LIBRARY FOR RIMP2/RICC2 SETS = /sopt/TURBOMOLE/7.2.1-official/cbasen/
 LIBRARY FOR RIR12 BASIS SETS = /sopt/TURBOMOLE/7.2.1-official/cabasen/
 LIBRARY FOR OEP   BASIS SETS = /sopt/TURBOMOLE/7.2.1-official/xbasen/
            STRUCTURE LIBRARY = /sopt/TURBOMOLE/7.2.1-official/structures/
 

 ***********************************************************
 *                                                         *
 *                       D E F I N E                       *
 *                                                         *
 *         TURBOMOLE'S  INTERACTIVE  INPUT  PROGRAM        *
 *                                                         *
 *  Quantum Chemistry Group       University of Karlsruhe  *
 *                                                         *
 ***********************************************************


 FILE control ALREADY EXISTS 
 I WILL PLUG IN THE NEW DATA.

 DATA WILL BE TAKEN FROM control BY DEFAULT
 
 INPUT TITLE 

 SYMMETRY c1   AND CARTESIAN COORDINATES FOR  25 ATOMS 
 HAVE BEEN READ FROM THE DEFAULT INPUT FILE control . 
 DEFINITIONS OF INTERNAL COORDINATES HAVE  N O T  BEEN READ. 
 SPECIFICATION OF BOND TOPOLOGY HAS BEEN READ. 
 DO YOU WANT TO CHANGE THE GEOMETRY DATA ?  DEFAULT=n  GOBACK=&


 NO DEFINITION OF ATOMIC ATTRIBUTES ($atoms) IN control


 SUPPLYING BASIS SETS TO   25 ATOMS 
 #                                                                       
 #                   BASIS SET LIBRARY FOR CARBON                        
 #            ECPs, HONDO-BASIS SETS FROM basen AND                      
 #     FULLY OPTIMIZED BASIS SETS FROM newbas MERGED 02/6/93             
 #                                                                       
 #         abbreviation hondo refers to the version 7.0 of HONDO         
 #                                                                       
 ########################################################################
 #       HF limit : E(3P) = -37.688619 a.u. (C. Froese Fischer, 1977)    
 ########################################################################
 #       Roothaan parameters for C(3P) in symmetry I:                    
 #        a = 3/4      b = 3/2                                           
 ########################################################################
 #                                                                       
 c def-SV(P)                                                             
 c def2-SVP                                                              
 c dhf-SVP                                                               
 c dhf-SVP-2c                                                            
 c def2-SV(P)                                                            
 c dhf-SV(P)                                                             
 c dhf-SV(P)-2c                                                          
 # c (7s4p1d)/[3s2p1d] {511/31/1}                                        
 # ROHF(equiv) energy is -37.64114337919 a.u.  (virial theorem = 2.000000
 # UHF(noneq)  energy is -37.64522986135 a.u.  (virial theorem = 2.000084
 #                                                                       
 #                      BASIS SET LIBRARY FOR IODINE                     
 #                                                                       
 ########################################################################
 #  HF limit ECP-28-mdf : E(2P;s2p5) = -296.652871074 au (Dolg 2004)     
 ########################################################################
 #       Roothaan parameters for I(2P) in symmetry I:                    
 #        a = 24/25      b = 24/25                                       
 ########################################################################
 i def-SV(P)                                                             
 # i (4s5p1d)/[2s2p1d] {31/41/1}                                         
 # ROHF(equiv) energy is -11.17744088767 a.u.  (virial theorem = 1.305140
 # UHF(noneq)  energy is -11.18109523801 a.u.  (virial theorem = 1.305352
 #optimized basis for the ecp-46-mwb, d-function added                   
 #                                                                       
 #                    BASIS SET LIBRARY FOR HYDROGEN                     
 #            ECPs, HONDO-BASIS SETS FROM basen AND                      
 #     FULLY OPTIMIZED BASIS SETS FROM newbas MERGED 02/6/93             
 #                                                                       
 #         abbreviation hondo refers to the version 7.0 of HONDO         
 #                                                                       
 ########################################################################
 #       HF limit : E(2S) = -0.5 a.u.                                    
 ########################################################################
 #       Roothaan parameters for H(2S):                                  
 #        a = 0      b = 0                                               
 ########################################################################
 #                                                                       
 h def-SV(P)                                                             
 h def2-SV(P)                                                            
 h dhf-SV(P)                                                             
 h dhf-SV(P)-2c                                                          
 h x2c-SV(P)all                                                          
 h x2c-SV(P)all-2c                                                       
 # HF(equiv) energy is -0.49927840571 a.u.  (virial theorem = 2.000000001
 # (4s)/[2s] {31}                                                        
 # H. Horn, Aug. 91                                                      
 #                                                                       
 #                      BASIS SET LIBRARY FOR NITROGEN                   
 #            ECPs, HONDO-BASIS SETS FROM basen AND                      
 #     FULLY OPTIMIZED BASIS SETS FROM newbas MERGED 02/6/93             
 #                                                                       
 #         abbreviation hondo refers to the version 7.0 of HONDO         
 #                                                                       
 #                                                                       
 ########################################################################
 #       HF limit : E(4S) = -54.400934 a.u. (C. Froese Fischer, 1977)    
 ########################################################################
 #       Roothaan parameters for N(4S) in symmetry I:                    
 #        a = 1      b = 2                                               
 ########################################################################
 n def-SV(P)                                                             
 n def2-SVP                                                              
 n dhf-SVP                                                               
 n dhf-SVP-2c                                                            
 n def2-SV(P)                                                            
 n dhf-SV(P)                                                             
 n dhf-SV(P)-2c                                                          
 # n (7s4p1d)/[3s2p1d] {511/31/1}                                        
 # ROHF(equiv) energy is -54.33292502496 a.u.  (virial theorem = 2.000000
 # UHF(equiv)  energy is -54.33653300372 a.u.  (virial theorem = 1.999955

 SUPPLYING DEFAULT PSEUDO POTENTIALS (def-ecp) TO   25 ATOMS 
 i def-ecp                                                               
 # relativistic I-ECP(MEFIT,WB), Q=7.                                    
 # M. Dolg, PhD-thesis, Stuttgart, 1989                                  
 # P. Schwerdtfeger, M. Dolg, W.H.E. Schwarz, G.A. Bowmaker, P.D.W. Boyd,
 # J. Chem. Phys. 91, 1762 (1989)                                        
 
 ==============================================================================
 NOTE: Improved basis sets are available for H-Rn ("def2-bases").
 For further information type "bi".
 ==============================================================================

 ATOMIC ATTRIBUTE DEFINITION MENU  ( #atoms=25    #bas=25    #ecp=1     )

 b    : ASSIGN ATOMIC BASIS SETS 
 bb   : b RESTRICTED TO BASIS SET LIBRARY 
 bl   : LIST ATOMIC BASIS SETS ASSIGNED
 bm   : MODIFY DEFINITION OF ATOMIC BASIS SET
 bp   : SWITCH BETWEEN 5d/7f AND 6d/10f
 lib  : SELECT BASIS SET LIBRARY
 ecp  : ASSIGN EFFECTIVE CORE POTENTIALS 
 ecpb : ecp RESTRICTED TO BASIS SET LIBRARY 
 ecpi : GENERAL INFORMATION ABOUT EFFECTIVE CORE POTENTIALS
 ecpl : LIST EFFECTIVE CORE POTENTIALS ASSIGNED
 ecprm: REMOVE EFFECTIVE CORE POTENTIAL(S)
 c    : ASSIGN NUCLEAR CHARGES (IF DIFFERENT FROM DEFAULTS) 
 cem  : ASSIGN NUCLEAR CHARGES FOR EMBEDDING 
 m    : ASSIGN ATOMIC MASSES (IF DIFFERENT FROM DEFAULTS) 
 dis  : DISPLAY MOLECULAR GEOMETRY 
 dat  : DISPLAY ATOMIC ATTRIBUTES YET ESTABLISHED 
 h    : EXPLANATION OF ATTRIBUTE DEFINITION SYNTAX 
 *    : TERMINATE THIS SECTION AND WRITE DATA OR DATA REFERENCES TO control
 GOBACK=& (TO GEOMETRY MENU !)


 COMMAND UNKNOWN - TRY AGAIN, PLEASE 


 ATOMIC ATTRIBUTE DEFINITION MENU  ( #atoms=25    #bas=25    #ecp=1     )

 b    : ASSIGN ATOMIC BASIS SETS 
 bb   : b RESTRICTED TO BASIS SET LIBRARY 
 bl   : LIST ATOMIC BASIS SETS ASSIGNED
 bm   : MODIFY DEFINITION OF ATOMIC BASIS SET
 bp   : SWITCH BETWEEN 5d/7f AND 6d/10f
 lib  : SELECT BASIS SET LIBRARY
 ecp  : ASSIGN EFFECTIVE CORE POTENTIALS 
 ecpb : ecp RESTRICTED TO BASIS SET LIBRARY 
 ecpi : GENERAL INFORMATION ABOUT EFFECTIVE CORE POTENTIALS
 ecpl : LIST EFFECTIVE CORE POTENTIALS ASSIGNED
 ecprm: REMOVE EFFECTIVE CORE POTENTIAL(S)
 c    : ASSIGN NUCLEAR CHARGES (IF DIFFERENT FROM DEFAULTS) 
 cem  : ASSIGN NUCLEAR CHARGES FOR EMBEDDING 
 m    : ASSIGN ATOMIC MASSES (IF DIFFERENT FROM DEFAULTS) 
 dis  : DISPLAY MOLECULAR GEOMETRY 
 dat  : DISPLAY ATOMIC ATTRIBUTES YET ESTABLISHED 
 h    : EXPLANATION OF ATTRIBUTE DEFINITION SYNTAX 
 *    : TERMINATE THIS SECTION AND WRITE DATA OR DATA REFERENCES TO control
 GOBACK=& (TO GEOMETRY MENU !)


 BASIS SETS WILL BE WRITTEN TO FILE basis BY DEFAULT


 ECP'S WILL BE WRITTEN TO FILE basis BY DEFAULT


              ATOMIC COORDINATES              ATOM SHELLS CHARGE PSEUDO MASS
     1.96019024    0.00101856   -1.10001336    c      6      6.     0 12.011
    -0.33351210   -0.00051212    0.19410322    c      6      6.     0 12.011
    -0.34614869   -0.00097888    2.83106108    c      6      6.     0 12.011
     1.92729389    0.00007559    4.16717116    c      6      6.     0 12.011
     4.21147390    0.00160249    2.85633050    c      6      6.     0 12.011
     4.23629923    0.00207114    0.22350358    c      6      6.     0 12.011
    -3.78714912   -0.00320498    4.78927845    i      5     53.     1126.904
     1.91458926   -0.00025511    6.21010117    h      2      1.     0  1.008
     5.96986217    0.00241696    3.89893020    h      2      1.     0  1.008
     6.01197094    0.00324088   -0.78691031    h      2      1.     0  1.008
     1.96207052    0.00137761   -3.14425673    h      2      1.     0  1.008
    -2.09628076   -0.00130013   -0.83853196    h      2      1.     0  1.008
    -8.65984438   -0.00373164    7.56764150    n      6      7.     0 14.007
   -10.26546153    1.95226719    6.50730483    c      6      6.     0 12.011
    -9.83047681   -2.46815372    7.27665202    c      6      6.     0 12.011
    -8.14587478    0.50751865   10.21384768    c      6      6.     0 12.011
    -9.88178477    0.53602706   11.35926549    h      2      1.     0  1.008
    -6.89190165   -0.93982637   10.96613821    h      2      1.     0  1.008
    -7.21379949    2.33262182   10.39647459    h      2      1.     0  1.008
   -12.11103043    2.05509853    7.46099481    h      2      1.     0  1.008
    -9.33681043    3.77963803    6.68412839    h      2      1.     0  1.008
   -10.58381991    1.57703939    4.50955439    h      2      1.     0  1.008
   -11.65361844   -2.59310430    8.27002814    h      2      1.     0  1.008
   -10.14794324   -2.85085728    5.28020550    h      2      1.     0  1.008
    -8.57915119   -3.92011724    8.02425603    h      2      1.     0  1.008
 

 we will work with the  1s 3p 5d

 there are 1 real representations :   a   

 OCCUPATION NUMBER & MOLECULAR ORBITAL DEFINITION MENU 

 CHOOSE COMMAND 
 infsao     : OUTPUT SAO INFORMATION 
 atb        : Switch for writing MOs in ASCII or binary format
 eht        : PROVIDE MOS && OCCUPATION NUMBERS FROM EXTENDED HUECKEL GUESS 
 use <file> : SUPPLY MO INFORMATION USING DATA FROM <file> 
 man        : MANUAL SPECIFICATION OF OCCUPATION NUMBERS 
 hcore      : HAMILTON CORE GUESS FOR MOS
 flip       : FLIP SPIN OF A SELECTED ATOM
 &          : MOVE BACK TO THE ATOMIC ATTRIBUTES MENU
 THE COMMANDS  use  OR  eht  OR  *  OR q(uit) TERMINATE THIS MENU !!! 
 FOR EXPLANATIONS APPEND A QUESTION MARK (?) TO ANY COMMAND 


 UNKNOWN COMMAND WILL BE IGNORED !


 OCCUPATION NUMBER & MOLECULAR ORBITAL DEFINITION MENU 

 CHOOSE COMMAND 
 infsao     : OUTPUT SAO INFORMATION 
 atb        : Switch for writing MOs in ASCII or binary format
 eht        : PROVIDE MOS && OCCUPATION NUMBERS FROM EXTENDED HUECKEL GUESS 
 use <file> : SUPPLY MO INFORMATION USING DATA FROM <file> 
 man        : MANUAL SPECIFICATION OF OCCUPATION NUMBERS 
 hcore      : HAMILTON CORE GUESS FOR MOS
 flip       : FLIP SPIN OF A SELECTED ATOM
 &          : MOVE BACK TO THE ATOMIC ATTRIBUTES MENU
 THE COMMANDS  use  OR  eht  OR  *  OR q(uit) TERMINATE THIS MENU !!! 
 FOR EXPLANATIONS APPEND A QUESTION MARK (?) TO ANY COMMAND 


 UNKNOWN COMMAND WILL BE IGNORED !


 OCCUPATION NUMBER & MOLECULAR ORBITAL DEFINITION MENU 

 CHOOSE COMMAND 
 infsao     : OUTPUT SAO INFORMATION 
 atb        : Switch for writing MOs in ASCII or binary format
 eht        : PROVIDE MOS && OCCUPATION NUMBERS FROM EXTENDED HUECKEL GUESS 
 use <file> : SUPPLY MO INFORMATION USING DATA FROM <file> 
 man        : MANUAL SPECIFICATION OF OCCUPATION NUMBERS 
 hcore      : HAMILTON CORE GUESS FOR MOS
 flip       : FLIP SPIN OF A SELECTED ATOM
 &          : MOVE BACK TO THE ATOMIC ATTRIBUTES MENU
 THE COMMANDS  use  OR  eht  OR  *  OR q(uit) TERMINATE THIS MENU !!! 
 FOR EXPLANATIONS APPEND A QUESTION MARK (?) TO ANY COMMAND 


 UNKNOWN COMMAND WILL BE IGNORED !


 OCCUPATION NUMBER & MOLECULAR ORBITAL DEFINITION MENU 

 CHOOSE COMMAND 
 infsao     : OUTPUT SAO INFORMATION 
 atb        : Switch for writing MOs in ASCII or binary format
 eht        : PROVIDE MOS && OCCUPATION NUMBERS FROM EXTENDED HUECKEL GUESS 
 use <file> : SUPPLY MO INFORMATION USING DATA FROM <file> 
 man        : MANUAL SPECIFICATION OF OCCUPATION NUMBERS 
 hcore      : HAMILTON CORE GUESS FOR MOS
 flip       : FLIP SPIN OF A SELECTED ATOM
 &          : MOVE BACK TO THE ATOMIC ATTRIBUTES MENU
 THE COMMANDS  use  OR  eht  OR  *  OR q(uit) TERMINATE THIS MENU !!! 
 FOR EXPLANATIONS APPEND A QUESTION MARK (?) TO ANY COMMAND 


 UNKNOWN COMMAND WILL BE IGNORED !


 OCCUPATION NUMBER & MOLECULAR ORBITAL DEFINITION MENU 

 CHOOSE COMMAND 
 infsao     : OUTPUT SAO INFORMATION 
 atb        : Switch for writing MOs in ASCII or binary format
 eht        : PROVIDE MOS && OCCUPATION NUMBERS FROM EXTENDED HUECKEL GUESS 
 use <file> : SUPPLY MO INFORMATION USING DATA FROM <file> 
 man        : MANUAL SPECIFICATION OF OCCUPATION NUMBERS 
 hcore      : HAMILTON CORE GUESS FOR MOS
 flip       : FLIP SPIN OF A SELECTED ATOM
 &          : MOVE BACK TO THE ATOMIC ATTRIBUTES MENU
 THE COMMANDS  use  OR  eht  OR  *  OR q(uit) TERMINATE THIS MENU !!! 
 FOR EXPLANATIONS APPEND A QUESTION MARK (?) TO ANY COMMAND 


 CANNOT FIND $scforbitalshift ENTRY IN control TO COPY INTO control
 WILL USE DEFAULT SETTING for RHF: closedshell=.4


 NO  'derivative'  SPECIFIC KEYWORDS / DATA GROUPS HAVE BEEN FOUND
 IN INPUT CONTROL FILE control


 PROVIDING  'derivative'  DEFAULT PARAMETERS ...

 NO <relax> SPECIFIC KEYWORDS / DATA GROUPS HAVE BEEN FOUND
 IN INPUT CONTROL FILE control


 PROVIDING FORCE RELAXATION DEFAULT PARAMETERS ...
  missing closed shell occupation number declaration

 GENERAL MENU : SELECT YOUR TOPIC 
 scf    : SELECT NON-DEFAULT SCF PARAMETER 
 mp2    : OPTIONS AND DATA GROUPS FOR rimp2 and mpgrad
 cc     : OPTIONS AND DATA GROUPS FOR ricc2
 ex     : EXCITED STATE AND RESPONSE OPTIONS
 prop   : SELECT TOOLS FOR SCF-ORBITAL ANALYSIS 
 drv    : SELECT NON-DEFAULT INPUT PARAMETER FOR EVALUATION
          OF ANALYTICAL ENERGY DERIVATIVES 
          (GRADIENTS, FORCE CONSTANTS) 
 rex    : SELECT OPTIONS FOR GEOMETRY UPDATES USING RELAX
 stp    : SELECT NON-DEFAULT STRUCTURE OPTIMIZATION PARAMETER
 e      : DEFINE EXTERNAL ELECTROSTATIC FIELD 
 dft    : DFT Parameters 
 ri     : RI Parameters 
 rijk   : RI-JK-HF Parameters 
 rirpa  : RIRPA Parameters 
 senex  : seminumeric exchange parameters 
 hybno  : hybrid Noga/Diag parameters
 dsp    : DFT dispersion correction
 trunc  : USE TRUNCATED AUXBASIS DURING ITERATIONS 
 marij  : MULTIPOLE ACCELERATED RI-J 
 dis    : DISPLAY MOLECULAR GEOMETRY 
 list   : LIST OF CONTROL FILE 
 &      : GO BACK TO OCCUPATION/ORBITAL ASSIGNMENT MENU

 * or q : END OF DEFINE SESSION 


 there are 1 real representations :   a   

------------------------------------------------------------------------
 electrostatic field definition menu 
------------------------------------------------------------------------
 option       | status | description 
------------------------------------------------------------------------
 1st          |    F   | numerical 1st derivative dE/dField 
 2nd          |    F   | numerical 2nd derivative d2E/dField2 
 delta <real> |        | increment for numerical differentiation 
              |        | DEFAULT =   0.5000E-02
 geofield     |    F   | geometry optimization with external field
 man          |    F   | explicit definition of electrostatic field(s)
------------------------------------------------------------------------
 type <option> for enabling and -<option> for disabling <option> 
 q(uit) or * will terminate this menu


------------------------------------------------------------------------
 electrostatic field definition menu 
------------------------------------------------------------------------
 option       | status | description 
------------------------------------------------------------------------
 1st          |    F   | numerical 1st derivative dE/dField 
 2nd          |    F   | numerical 2nd derivative d2E/dField2 
 delta <real> |        | increment for numerical differentiation 
              |        | DEFAULT =   0.5000E-02
 geofield     |    F   | geometry optimization with external field
 man          |    F   | explicit definition of electrostatic field(s)
------------------------------------------------------------------------
 type <option> for enabling and -<option> for disabling <option> 
 q(uit) or * will terminate this menu


------------------------------------------------------------------------
 electrostatic field definition menu 
------------------------------------------------------------------------
 option       | status | description 
------------------------------------------------------------------------
 1st          |    F   | numerical 1st derivative dE/dField 
 2nd          |    F   | numerical 2nd derivative d2E/dField2 
 delta <real> |        | increment for numerical differentiation 
              |        | DEFAULT =   0.5000E-02
 geofield     |    F   | geometry optimization with external field
 man          |    F   | explicit definition of electrostatic field(s)
------------------------------------------------------------------------
 type <option> for enabling and -<option> for disabling <option> 
 q(uit) or * will terminate this menu


------------------------------------------------------------------------
 electrostatic field definition menu 
------------------------------------------------------------------------
 option       | status | description 
------------------------------------------------------------------------
 1st          |    F   | numerical 1st derivative dE/dField 
 2nd          |    F   | numerical 2nd derivative d2E/dField2 
 delta <real> |        | increment for numerical differentiation 
              |        | DEFAULT =   0.5000E-02
 geofield     |    F   | geometry optimization with external field
 man          |    F   | explicit definition of electrostatic field(s)
------------------------------------------------------------------------
 type <option> for enabling and -<option> for disabling <option> 
 q(uit) or * will terminate this menu


------------------------------------------------------------------------
 electrostatic field definition menu 
------------------------------------------------------------------------
 option       | status | description 
------------------------------------------------------------------------
 1st          |    F   | numerical 1st derivative dE/dField 
 2nd          |    F   | numerical 2nd derivative d2E/dField2 
 delta <real> |        | increment for numerical differentiation 
              |        | DEFAULT =   0.5000E-02
 geofield     |    F   | geometry optimization with external field
 man          |    F   | explicit definition of electrostatic field(s)
------------------------------------------------------------------------
 type <option> for enabling and -<option> for disabling <option> 
 q(uit) or * will terminate this menu


------------------------------------------------------------------------
 electrostatic field definition menu 
------------------------------------------------------------------------
 option       | status | description 
------------------------------------------------------------------------
 1st          |    F   | numerical 1st derivative dE/dField 
 2nd          |    F   | numerical 2nd derivative d2E/dField2 
 delta <real> |        | increment for numerical differentiation 
              |        | DEFAULT =   0.5000E-02
 geofield     |    F   | geometry optimization with external field
 man          |    F   | explicit definition of electrostatic field(s)
------------------------------------------------------------------------
 type <option> for enabling and -<option> for disabling <option> 
 q(uit) or * will terminate this menu


------------------------------------------------------------------------
 electrostatic field definition menu 
------------------------------------------------------------------------
 option       | status | description 
------------------------------------------------------------------------
 1st          |    F   | numerical 1st derivative dE/dField 
 2nd          |    F   | numerical 2nd derivative d2E/dField2 
 delta <real> |        | increment for numerical differentiation 
              |        | DEFAULT =   0.5000E-02
 geofield     |    F   | geometry optimization with external field
 man          |    F   | explicit definition of electrostatic field(s)
------------------------------------------------------------------------
 type <option> for enabling and -<option> for disabling <option> 
 q(uit) or * will terminate this menu


------------------------------------------------------------------------
 electrostatic field definition menu 
------------------------------------------------------------------------
 option       | status | description 
------------------------------------------------------------------------
 1st          |    F   | numerical 1st derivative dE/dField 
 2nd          |    F   | numerical 2nd derivative d2E/dField2 
 delta <real> |        | increment for numerical differentiation 
              |        | DEFAULT =   0.5000E-02
 geofield     |    F   | geometry optimization with external field
 man          |    F   | explicit definition of electrostatic field(s)
------------------------------------------------------------------------
 type <option> for enabling and -<option> for disabling <option> 
 q(uit) or * will terminate this menu


------------------------------------------------------------------------
 electrostatic field definition menu 
------------------------------------------------------------------------
 option       | status | description 
------------------------------------------------------------------------
 1st          |    F   | numerical 1st derivative dE/dField 
 2nd          |    F   | numerical 2nd derivative d2E/dField2 
 delta <real> |        | increment for numerical differentiation 
              |        | DEFAULT =   0.5000E-02
 geofield     |    F   | geometry optimization with external field
 man          |    F   | explicit definition of electrostatic field(s)
------------------------------------------------------------------------
 type <option> for enabling and -<option> for disabling <option> 
 q(uit) or * will terminate this menu


 GENERAL MENU : SELECT YOUR TOPIC 
 scf    : SELECT NON-DEFAULT SCF PARAMETER 
 mp2    : OPTIONS AND DATA GROUPS FOR rimp2 and mpgrad
 cc     : OPTIONS AND DATA GROUPS FOR ricc2
 ex     : EXCITED STATE AND RESPONSE OPTIONS
 prop   : SELECT TOOLS FOR SCF-ORBITAL ANALYSIS 
 drv    : SELECT NON-DEFAULT INPUT PARAMETER FOR EVALUATION
          OF ANALYTICAL ENERGY DERIVATIVES 
          (GRADIENTS, FORCE CONSTANTS) 
 rex    : SELECT OPTIONS FOR GEOMETRY UPDATES USING RELAX
 stp    : SELECT NON-DEFAULT STRUCTURE OPTIMIZATION PARAMETER
 e      : DEFINE EXTERNAL ELECTROSTATIC FIELD 
 dft    : DFT Parameters 
 ri     : RI Parameters 
 rijk   : RI-JK-HF Parameters 
 rirpa  : RIRPA Parameters 
 senex  : seminumeric exchange parameters 
 hybno  : hybrid Noga/Diag parameters
 dsp    : DFT dispersion correction
 trunc  : USE TRUNCATED AUXBASIS DURING ITERATIONS 
 marij  : MULTIPOLE ACCELERATED RI-J 
 dis    : DISPLAY MOLECULAR GEOMETRY 
 list   : LIST OF CONTROL FILE 
 &      : GO BACK TO OCCUPATION/ORBITAL ASSIGNMENT MENU

 * or q : END OF DEFINE SESSION 



STATUS OF RI-OPTIONS:
    RI IS NOT USED
    Memory for RI:           500 Mb
    Filename for auxbasis: auxbasis

 ENTER RI-OPTION TO BE MODIFIED 
      m: CHANGE MEMORY FOR RI 
      f: CHANGE FILENAME 
   jbas: ASSIGN AUXILIARY RI-J BASIS SETS
     on: TO SWITCH ON  RI 
 Use <ENTER>, q, end, or '*' to leave this menu

 NO DEFINITION OF BASIS SETS ($jbas) IN control
  TRY TO OBTAIN BASIS SETS FROM LIBRARY !

 keyword $jbas  missing in file <control>

 #                                                                       
 #AUXILIARY BASIS SET FOR C                                              
 #                                                                       
 #                                                                       
 c def-SV(P)                                                             
 # c (8s3p3d1f)/ [6s3p3d1f]  {311111/111/111/1}                          
 # RI-J atom energy: -37.80520010960            dev(DFT): 0.015 mH       
 # RI-J CH2 energy:  -39.08581702509            dev(DFT): 0.231 mH       
 # RI-J CO energy:   -113.23006349711           dev(DFT): 0.150 mH       
 # RI-J C6H6 energy: -232.07656836052           dev(DFT): 0.724 mH       

 keyword $jbas  missing in file <control>

 #                                                                       
 #AUXILIARY BASIS SET FOR I                                              
 #                                                                       
 #                                                                       
 ########################################################################
 i def-SV(P)                                                             
 i ecp-46-mwb-TZVP                                                       
 i def-TZVP                                                              
 #  (5s3p3d1f1g)/ [3s3p2d1f1g]  {311/111/21/1/1}                         
 # RI-J atom energy:                                  dev(DFT): 0.018 mH 
 # RI-J HI :                                          dev(DFT): 0.104 mH 
 # RI-J IF :                                          dev(DFT): 0.120 mH 
 # RI-J IF3  :                                        dev(DFT): 0.206 mH 
 # s,d functions optimized and contracted for I atom                     
 # f, p functions from auxf, auxp (p contraction calc. on HI)            
 # g function exp = 2* eta(d) Basis                                      
 # contraction tested on IF, IF3                                         

 keyword $jbas  missing in file <control>

 #                                                                       
 #AUXILIARY BASIS SET FOR H                                              
 #                                                                       
 #                                                                       
 h def-SV(P)                                                             
 # h (4s2p)/ [2s1p]  {31/2}                                              
 # RI-J atom energy: -.49894769238              dev(DFT): 0.005 mH       
 # RI-J H2 energy:  -1.16963970457              dev(DFT): 0.024 mH       

 keyword $jbas  missing in file <control>

 #                                                                       
 #AUXILIARY BASIS SET FOR N                                              
 #                                                                       
 #                                                                       
 ########################################################################
 n def-SV(P)                                                             
 # n (8s3p3d1f)/ [6s3p3d1f]  {311111/111/111/1}                          
 # RI-J atom energy: -54.53547421622           dev(DFT): 0.007 mH        
 # RI-J NH3 energy:  -56.49459079997           dev(DFT): 0.185 mH        
 # RI-J N2 energy:   -109.44895261120          dev(DFT): 0.130 mH        
 # RI-J NO energy:   -129.78122584468          dev(DFT): 0.373 mH (2/1111


STATUS OF RI-OPTIONS:
    RI IS USED
    Memory for RI:           500 Mb
    Filename for auxbasis: auxbasis

 ENTER RI-OPTION TO BE MODIFIED 
      m: CHANGE MEMORY FOR RI 
      f: CHANGE FILENAME 
   jbas: ASSIGN AUXILIARY RI-J BASIS SETS
    off: TO SWITCH OFF RI 
 Use <ENTER>, q, end, or '*' to leave this menu


STATUS OF RI-OPTIONS:
    RI IS USED
    Memory for RI:          5000 Mb
    Filename for auxbasis: auxbasis

 ENTER RI-OPTION TO BE MODIFIED 
      m: CHANGE MEMORY FOR RI 
      f: CHANGE FILENAME 
   jbas: ASSIGN AUXILIARY RI-J BASIS SETS
    off: TO SWITCH OFF RI 
 Use <ENTER>, q, end, or '*' to leave this menu

 GENERAL MENU : SELECT YOUR TOPIC 
 scf    : SELECT NON-DEFAULT SCF PARAMETER 
 mp2    : OPTIONS AND DATA GROUPS FOR rimp2 and mpgrad
 cc     : OPTIONS AND DATA GROUPS FOR ricc2
 ex     : EXCITED STATE AND RESPONSE OPTIONS
 prop   : SELECT TOOLS FOR SCF-ORBITAL ANALYSIS 
 drv    : SELECT NON-DEFAULT INPUT PARAMETER FOR EVALUATION
          OF ANALYTICAL ENERGY DERIVATIVES 
          (GRADIENTS, FORCE CONSTANTS) 
 rex    : SELECT OPTIONS FOR GEOMETRY UPDATES USING RELAX
 stp    : SELECT NON-DEFAULT STRUCTURE OPTIMIZATION PARAMETER
 e      : DEFINE EXTERNAL ELECTROSTATIC FIELD 
 dft    : DFT Parameters 
 ri     : RI Parameters 
 rijk   : RI-JK-HF Parameters 
 rirpa  : RIRPA Parameters 
 senex  : seminumeric exchange parameters 
 hybno  : hybrid Noga/Diag parameters
 dsp    : DFT dispersion correction
 trunc  : USE TRUNCATED AUXBASIS DURING ITERATIONS 
 marij  : MULTIPOLE ACCELERATED RI-J 
 dis    : DISPLAY MOLECULAR GEOMETRY 
 list   : LIST OF CONTROL FILE 
 &      : GO BACK TO OCCUPATION/ORBITAL ASSIGNMENT MENU

 * or q : END OF DEFINE SESSION 


STATUS OF DFT DISPERSION CORRECTION
  correction is not used

 ENTER OPTION TO BE MODIFIED
   on  :  to switch DFT-D3 correction on
   bj  :  to switch DFT-D3 BJ correction on
   off :  to switch dispersion correction off
   old :  to switch DFT-D2 correction on
  Just <ENTER>, q or * to terminate this menu.

STATUS OF DFT DISPERSION CORRECTION
  DFT-D3 BJ correction is used

 ENTER OPTION TO BE MODIFIED
   on  :  to switch DFT-D3 correction on
   bj  :  to switch DFT-D3 BJ correction on
   off :  to switch dispersion correction off
   old :  to switch DFT-D2 correction on
  Just <ENTER>, q or * to terminate this menu.

 GENERAL MENU : SELECT YOUR TOPIC 
 scf    : SELECT NON-DEFAULT SCF PARAMETER 
 mp2    : OPTIONS AND DATA GROUPS FOR rimp2 and mpgrad
 cc     : OPTIONS AND DATA GROUPS FOR ricc2
 ex     : EXCITED STATE AND RESPONSE OPTIONS
 prop   : SELECT TOOLS FOR SCF-ORBITAL ANALYSIS 
 drv    : SELECT NON-DEFAULT INPUT PARAMETER FOR EVALUATION
          OF ANALYTICAL ENERGY DERIVATIVES 
          (GRADIENTS, FORCE CONSTANTS) 
 rex    : SELECT OPTIONS FOR GEOMETRY UPDATES USING RELAX
 stp    : SELECT NON-DEFAULT STRUCTURE OPTIMIZATION PARAMETER
 e      : DEFINE EXTERNAL ELECTROSTATIC FIELD 
 dft    : DFT Parameters 
 ri     : RI Parameters 
 rijk   : RI-JK-HF Parameters 
 rirpa  : RIRPA Parameters 
 senex  : seminumeric exchange parameters 
 hybno  : hybrid Noga/Diag parameters
 dsp    : DFT dispersion correction
 trunc  : USE TRUNCATED AUXBASIS DURING ITERATIONS 
 marij  : MULTIPOLE ACCELERATED RI-J 
 dis    : DISPLAY MOLECULAR GEOMETRY 
 list   : LIST OF CONTROL FILE 
 &      : GO BACK TO OCCUPATION/ORBITAL ASSIGNMENT MENU

 * or q : END OF DEFINE SESSION 

  missing closed shell occupation number declaration

 INPUT MENU FOR CALCULATIONS WITH ricc2:
 (#atoms= 25   #bas= 25   #cbas=  0   #cabs=  0   #jkbas=  0   )
 freeze  : SET FROZEN OCCUPIED/VIRTUAL ORBITAL OPTIONS
 cbas    : ASSIGN AUXILIARY (CBAS) BASIS SETS
 memory  : SET MAXIMUM CORE MEMORY (PRESENT VALUE:    500 MiB  per_core)
 denconv : CONVERGENCE THRESHOLD FOR SCF DENSITY (0.1E-06 )
 tmpdir  : DEFINE PATH FOR TEMPORY FILES
 ricc2   : DATA GROUP $ricc2 (MODELS AND GLOBAL OPTIONS)
 f12     : DATA GROUP $rir12 (F12 APPROX. AND OPTIONS)
 exci    : INPUT FOR CALCULATION OF EXCITATION ENERGIES
 resp    : INPUT FOR GROUND STATE PROPERTIES
 cabs    : ASSIGN COMPLEMENTARY AUXILIARY (CABS) BASIS SETS
 jkbas   : ASSIGN AUXILIARY BASIS FOR FOCK MATRICES (JKBAS)
 other   : OTHER DIVERSE OPTIONS
 * / end : SAVE DEFINITIONS AND LEAVE MENU
 <moinp> : no orbitals found (keyword $scfmo  missing) 

 No orbitals available from control file !?
