
 define (gplogin2.gp.local) : TURBOMOLE V7.2 ( 21454 ) 2 Oct 2017 at 18:01:17
 Copyright (C) 2017 TURBOMOLE GmbH, Karlsruhe


    2020-08-04 22:58:48.842 

                    HOST NAME = gplogin2.gp.local
             OPERATING SYSTEM = unix
   STANDARD BASIS SET LIBRARY = /sopt/TURBOMOLE/7.2.1-official/basen/
  ALTERNATE BASIS SET LIBRARY = /sopt/TURBOMOLE/7.2.1-official/basold/
 LIBRARY FOR RI-J  BASIS SETS = /sopt/TURBOMOLE/7.2.1-official/jbasen/
 LIBRARY FOR RI-JK BASIS SETS = /sopt/TURBOMOLE/7.2.1-official/jkbasen/
 LIBRARY FOR RIMP2/RICC2 SETS = /sopt/TURBOMOLE/7.2.1-official/cbasen/
 LIBRARY FOR RIR12 BASIS SETS = /sopt/TURBOMOLE/7.2.1-official/cabasen/
 LIBRARY FOR OEP   BASIS SETS = /sopt/TURBOMOLE/7.2.1-official/xbasen/
            STRUCTURE LIBRARY = /sopt/TURBOMOLE/7.2.1-official/structures/
 

 ***********************************************************
 *                                                         *
 *                       D E F I N E                       *
 *                                                         *
 *         TURBOMOLE'S  INTERACTIVE  INPUT  PROGRAM        *
 *                                                         *
 *  Quantum Chemistry Group       University of Karlsruhe  *
 *                                                         *
 ***********************************************************


 DATA WILL BE WRITTEN TO THE NEW FILE control

 IF YOU WANT TO READ DEFAULT-DATA FROM ANOTHER control-TYPE FILE,
 THEN ENTER ITS LOCATION/NAME OR OTHERWISE HIT >return<.

 
 INPUT TITLE OR 
 ENTER & TO REPEAT DEFINITION OF DEFAULT INPUT FILE 

 SPECIFICATION OF MOLECULAR GEOMETRY ( #ATOMS=0     SYMMETRY=c1  )
 YOU MAY USE ONE OF THE FOLLOWING COMMANDS : 
 sy <group> <eps> : DEFINE MOLECULAR SYMMETRY (default for eps=3d-1)
 desy <eps>       : DETERMINE MOLECULAR SYMMETRY AND ADJUST 
                     COORDINATES (default for eps=1d-6)
 susy             : ADJUST COORDINATES FOR SUBGROUPS
 ai               : ADD ATOMIC COORDINATES INTERACTIVELY
 a <file>         : ADD ATOMIC COORDINATES FROM FILE <file>
 aa <file>        : ADD ATOMIC COORDINATES IN ANGSTROEM UNITS FROM FILE <file>
 sub              : SUBSTITUTE AN ATOM BY A GROUP OF ATOMS
 i                : INTERNAL COORDINATE MENU 
 ired             : REDUNDANT INTERNAL COORDINATES
 red_info         : DISPLAY REDUNDANT INTERNAL COORDINATES
 ff               : UFF-FORCEFIELD CALCULATION
 m                : MANIPULATE GEOMETRY
 frag             : Define Fragments for BSSE calculation
 w <file>         : WRITE MOLECULAR COORDINATES TO FILE <file> 
 r <file>         : RELOAD ATOMIC AND INTERNAL COORDINATES FROM FILE <file>
 name             : CHANGE ATOMIC IDENTIFIERS 
 del              : DELETE ATOMS 
 dis              : DISPLAY MOLECULAR GEOMETRY 
 banal            : CARRY OUT BOND ANALYSIS 
 *                : TERMINATE MOLECULAR GEOMETRY SPECIFICATION 
                     AND WRITE GEOMETRY DATA TO CONTROL FILE 

 IF YOU APPEND A QUESTION MARK TO ANY COMMAND AN EXPLANATION
 OF THAT COMMAND MAY BE GIVEN 


 CARTESIAN COORDINATES FOR   5 ATOMS HAVE SUCCESSFULLY 
 BEEN ADDED. 
 DEFINITIONS OF INTERNAL COORDINATES HAVE  N O T  BEEN READ. 
 SPECIFICATION OF BOND TOPOLOGY HAS  N O T  BEEN READ. 

 SPECIFICATION OF MOLECULAR GEOMETRY ( #ATOMS=5     SYMMETRY=c1  )
 YOU MAY USE ONE OF THE FOLLOWING COMMANDS : 
 sy <group> <eps> : DEFINE MOLECULAR SYMMETRY (default for eps=3d-1)
 desy <eps>       : DETERMINE MOLECULAR SYMMETRY AND ADJUST 
                     COORDINATES (default for eps=1d-6)
 susy             : ADJUST COORDINATES FOR SUBGROUPS
 ai               : ADD ATOMIC COORDINATES INTERACTIVELY
 a <file>         : ADD ATOMIC COORDINATES FROM FILE <file>
 aa <file>        : ADD ATOMIC COORDINATES IN ANGSTROEM UNITS FROM FILE <file>
 sub              : SUBSTITUTE AN ATOM BY A GROUP OF ATOMS
 i                : INTERNAL COORDINATE MENU 
 ired             : REDUNDANT INTERNAL COORDINATES
 red_info         : DISPLAY REDUNDANT INTERNAL COORDINATES
 ff               : UFF-FORCEFIELD CALCULATION
 m                : MANIPULATE GEOMETRY
 frag             : Define Fragments for BSSE calculation
 w <file>         : WRITE MOLECULAR COORDINATES TO FILE <file> 
 r <file>         : RELOAD ATOMIC AND INTERNAL COORDINATES FROM FILE <file>
 name             : CHANGE ATOMIC IDENTIFIERS 
 del              : DELETE ATOMS 
 dis              : DISPLAY MOLECULAR GEOMETRY 
 banal            : CARRY OUT BOND ANALYSIS 
 *                : TERMINATE MOLECULAR GEOMETRY SPECIFICATION 
                     AND WRITE GEOMETRY DATA TO CONTROL FILE 

 IF YOU APPEND A QUESTION MARK TO ANY COMMAND AN EXPLANATION
 OF THAT COMMAND MAY BE GIVEN 


 YOU DID NOT YET DEFINE ANY INTERNAL COORDINATES !

 ONLY AN INCOMPLETE SET OF   -1 INTERNALS SPECIFIED
 RECOMMENDATION: USE CARTESIAN COORDINATES (ENTER no BELOW)
 FOR ANY OTHER ANSWER YOU RETURN TO THE PREVIOUS MENU AGAIN

 IF YOU DO NOT WANT TO USE INTERNAL COORDINATES ENTER  no


 GEOMETRY DATA WILL BE WRITTEN TO FILE coord


 SUPPLYING BASIS SETS TO    5 ATOMS 
 #                                                                       
 #                   BASIS SET LIBRARY FOR CARBON                        
 #            ECPs, HONDO-BASIS SETS FROM basen AND                      
 #     FULLY OPTIMIZED BASIS SETS FROM newbas MERGED 02/6/93             
 #                                                                       
 #         abbreviation hondo refers to the version 7.0 of HONDO         
 #                                                                       
 ########################################################################
 #       HF limit : E(3P) = -37.688619 a.u. (C. Froese Fischer, 1977)    
 ########################################################################
 #       Roothaan parameters for C(3P) in symmetry I:                    
 #        a = 3/4      b = 3/2                                           
 ########################################################################
 #                                                                       
 c def-SV(P)                                                             
 c def2-SVP                                                              
 c dhf-SVP                                                               
 c dhf-SVP-2c                                                            
 c def2-SV(P)                                                            
 c dhf-SV(P)                                                             
 c dhf-SV(P)-2c                                                          
 # c (7s4p1d)/[3s2p1d] {511/31/1}                                        
 # ROHF(equiv) energy is -37.64114337919 a.u.  (virial theorem = 2.000000
 # UHF(noneq)  energy is -37.64522986135 a.u.  (virial theorem = 2.000084
 #                                                                       
 #                    BASIS SET LIBRARY FOR HYDROGEN                     
 #            ECPs, HONDO-BASIS SETS FROM basen AND                      
 #     FULLY OPTIMIZED BASIS SETS FROM newbas MERGED 02/6/93             
 #                                                                       
 #         abbreviation hondo refers to the version 7.0 of HONDO         
 #                                                                       
 ########################################################################
 #       HF limit : E(2S) = -0.5 a.u.                                    
 ########################################################################
 #       Roothaan parameters for H(2S):                                  
 #        a = 0      b = 0                                               
 ########################################################################
 #                                                                       
 h def-SV(P)                                                             
 h def2-SV(P)                                                            
 h dhf-SV(P)                                                             
 h dhf-SV(P)-2c                                                          
 h x2c-SV(P)all                                                          
 h x2c-SV(P)all-2c                                                       
 # HF(equiv) energy is -0.49927840571 a.u.  (virial theorem = 2.000000001
 # (4s)/[2s] {31}                                                        
 # H. Horn, Aug. 91                                                      
 
 ==============================================================================
 NOTE: Improved basis sets are available for H-Rn ("def2-bases").
 For further information type "bi".
 ==============================================================================

 ATOMIC ATTRIBUTE DEFINITION MENU  ( #atoms=5     #bas=5     #ecp=0     )

 b    : ASSIGN ATOMIC BASIS SETS 
 bb   : b RESTRICTED TO BASIS SET LIBRARY 
 bl   : LIST ATOMIC BASIS SETS ASSIGNED
 bm   : MODIFY DEFINITION OF ATOMIC BASIS SET
 bp   : SWITCH BETWEEN 5d/7f AND 6d/10f
 lib  : SELECT BASIS SET LIBRARY
 ecp  : ASSIGN EFFECTIVE CORE POTENTIALS 
 ecpb : ecp RESTRICTED TO BASIS SET LIBRARY 
 ecpi : GENERAL INFORMATION ABOUT EFFECTIVE CORE POTENTIALS
 ecpl : LIST EFFECTIVE CORE POTENTIALS ASSIGNED
 ecprm: REMOVE EFFECTIVE CORE POTENTIAL(S)
 c    : ASSIGN NUCLEAR CHARGES (IF DIFFERENT FROM DEFAULTS) 
 cem  : ASSIGN NUCLEAR CHARGES FOR EMBEDDING 
 m    : ASSIGN ATOMIC MASSES (IF DIFFERENT FROM DEFAULTS) 
 dis  : DISPLAY MOLECULAR GEOMETRY 
 dat  : DISPLAY ATOMIC ATTRIBUTES YET ESTABLISHED 
 h    : EXPLANATION OF ATTRIBUTE DEFINITION SYNTAX 
 *    : TERMINATE THIS SECTION AND WRITE DATA OR DATA REFERENCES TO control
 GOBACK=& (TO GEOMETRY MENU !)


 SUPPLYING BASIS SETS TO    5 ATOMS 
 #                                                                       
 #                   BASIS SET LIBRARY FOR CARBON                        
 #            ECPs, HONDO-BASIS SETS FROM basen AND                      
 #     FULLY OPTIMIZED BASIS SETS FROM newbas MERGED 02/6/93             
 #                                                                       
 #         abbreviation hondo refers to the version 7.0 of HONDO         
 #                                                                       
 ########################################################################
 #       HF limit : E(3P) = -37.688619 a.u. (C. Froese Fischer, 1977)    
 ########################################################################
 #       Roothaan parameters for C(3P) in symmetry I:                    
 #        a = 3/4      b = 3/2                                           
 ########################################################################
 #                                                                       
 c cc-pV6Z                                                               
 # c  (16s10p5d4f3g2h1i) / [7s6p5d4f3g2h1i]                              
 # ROHF(equiv) energy is -37.68861216462 a.u.  (virial theorem = 2.000000
 # UHF(noneq)  energy is -37.69372956304 a.u.  (virial theorem = 2.000001
 # Correlation Consistent Polarized Valence Hextuple Zeta (cc-pV6Z) Basis
 # Ref.: A. Wilson, T. van Mourik, T.H. Dunning; J. Mol. Struct. (THEOCHE
 #                                                                       
 #                    BASIS SET LIBRARY FOR HYDROGEN                     
 #            ECPs, HONDO-BASIS SETS FROM basen AND                      
 #     FULLY OPTIMIZED BASIS SETS FROM newbas MERGED 02/6/93             
 #                                                                       
 #         abbreviation hondo refers to the version 7.0 of HONDO         
 #                                                                       
 ########################################################################
 #       HF limit : E(2S) = -0.5 a.u.                                    
 ########################################################################
 #       Roothaan parameters for H(2S):                                  
 #        a = 0      b = 0                                               
 ########################################################################
 #                                                                       
 h cc-pV6Z                                                               
 # h (10s5p4d3f2g1h) -> [6s5p4d3f2g1h]                                   
 # HF(equiv) energy is -0.49999924451 a.u.  (virial theorem = 2.000001105
 # Ref.: K.A. Peterson, D.E. Woon, T.H. Dunning, JCP 100, 7410 (1994)    
 # Ref.: K.A. Peterson, to be published                                  
 # Correlation Consistent Polarized Valence Hextuple Zeta (cc-pV6Z) Basis

 ATOMIC ATTRIBUTE DEFINITION MENU  ( #atoms=5     #bas=5     #ecp=0     )

 b    : ASSIGN ATOMIC BASIS SETS 
 bb   : b RESTRICTED TO BASIS SET LIBRARY 
 bl   : LIST ATOMIC BASIS SETS ASSIGNED
 bm   : MODIFY DEFINITION OF ATOMIC BASIS SET
 bp   : SWITCH BETWEEN 5d/7f AND 6d/10f
 lib  : SELECT BASIS SET LIBRARY
 ecp  : ASSIGN EFFECTIVE CORE POTENTIALS 
 ecpb : ecp RESTRICTED TO BASIS SET LIBRARY 
 ecpi : GENERAL INFORMATION ABOUT EFFECTIVE CORE POTENTIALS
 ecpl : LIST EFFECTIVE CORE POTENTIALS ASSIGNED
 ecprm: REMOVE EFFECTIVE CORE POTENTIAL(S)
 c    : ASSIGN NUCLEAR CHARGES (IF DIFFERENT FROM DEFAULTS) 
 cem  : ASSIGN NUCLEAR CHARGES FOR EMBEDDING 
 m    : ASSIGN ATOMIC MASSES (IF DIFFERENT FROM DEFAULTS) 
 dis  : DISPLAY MOLECULAR GEOMETRY 
 dat  : DISPLAY ATOMIC ATTRIBUTES YET ESTABLISHED 
 h    : EXPLANATION OF ATTRIBUTE DEFINITION SYNTAX 
 *    : TERMINATE THIS SECTION AND WRITE DATA OR DATA REFERENCES TO control
 GOBACK=& (TO GEOMETRY MENU !)


 ENTER A SET OF ATOMS TO WHICH YOU WANT TO ASSIGN BASIS SETS
 ( ATOMIC SET : all none <index list> <identifier> ) 
 TO OUTPUT ATOMIC SET SYNTAX ENTER A QUESTION MARK  ? 
 E.G.  all dz            (DZ BASIS FOR ALL ATOMS)
       all sto-3g hondo  (SCALED STO-3G)
       1,2,4-6 dzp       (DZP BASIS FOR ATOMS 1,2,4,5,6)
       "c" tz            (TZ BASIS FOR ALL CARBON ATOMS)
 ANY DISPLAY COMMAND  dis  MAY BE ENTERED OR YOU MAY 
 HIT >return< TO QUIT (GOING BACK TO MAIN MENU) 


 <rdlist> : input index list is empty 


 LIST OF ATOMIC INDICES IS INCOMPREHENSIBLE


 ENTER A SET OF ATOMS TO WHICH YOU WANT TO ASSIGN BASIS SETS
 ( ATOMIC SET : all none <index list> <identifier> ) 
 TO OUTPUT ATOMIC SET SYNTAX ENTER A QUESTION MARK  ? 
 E.G.  all dz            (DZ BASIS FOR ALL ATOMS)
       all sto-3g hondo  (SCALED STO-3G)
       1,2,4-6 dzp       (DZP BASIS FOR ATOMS 1,2,4,5,6)
       "c" tz            (TZ BASIS FOR ALL CARBON ATOMS)
 ANY DISPLAY COMMAND  dis  MAY BE ENTERED OR YOU MAY 
 HIT >return< TO QUIT (GOING BACK TO MAIN MENU) 


 <rdlist> : input index list is empty 


 LIST OF ATOMIC INDICES IS INCOMPREHENSIBLE


 ENTER A SET OF ATOMS TO WHICH YOU WANT TO ASSIGN BASIS SETS
 ( ATOMIC SET : all none <index list> <identifier> ) 
 TO OUTPUT ATOMIC SET SYNTAX ENTER A QUESTION MARK  ? 
 E.G.  all dz            (DZ BASIS FOR ALL ATOMS)
       all sto-3g hondo  (SCALED STO-3G)
       1,2,4-6 dzp       (DZP BASIS FOR ATOMS 1,2,4,5,6)
       "c" tz            (TZ BASIS FOR ALL CARBON ATOMS)
 ANY DISPLAY COMMAND  dis  MAY BE ENTERED OR YOU MAY 
 HIT >return< TO QUIT (GOING BACK TO MAIN MENU) 


 <rdlist> : input index list is empty 


 LIST OF ATOMIC INDICES IS INCOMPREHENSIBLE


 ENTER A SET OF ATOMS TO WHICH YOU WANT TO ASSIGN BASIS SETS
 ( ATOMIC SET : all none <index list> <identifier> ) 
 TO OUTPUT ATOMIC SET SYNTAX ENTER A QUESTION MARK  ? 
 E.G.  all dz            (DZ BASIS FOR ALL ATOMS)
       all sto-3g hondo  (SCALED STO-3G)
       1,2,4-6 dzp       (DZP BASIS FOR ATOMS 1,2,4,5,6)
       "c" tz            (TZ BASIS FOR ALL CARBON ATOMS)
 ANY DISPLAY COMMAND  dis  MAY BE ENTERED OR YOU MAY 
 HIT >return< TO QUIT (GOING BACK TO MAIN MENU) 


 <rdlist> : index =     0 lies not within (    1,    5)


 LIST OF ATOMIC INDICES IS INCOMPREHENSIBLE


 ENTER A SET OF ATOMS TO WHICH YOU WANT TO ASSIGN BASIS SETS
 ( ATOMIC SET : all none <index list> <identifier> ) 
 TO OUTPUT ATOMIC SET SYNTAX ENTER A QUESTION MARK  ? 
 E.G.  all dz            (DZ BASIS FOR ALL ATOMS)
       all sto-3g hondo  (SCALED STO-3G)
       1,2,4-6 dzp       (DZP BASIS FOR ATOMS 1,2,4,5,6)
       "c" tz            (TZ BASIS FOR ALL CARBON ATOMS)
 ANY DISPLAY COMMAND  dis  MAY BE ENTERED OR YOU MAY 
 HIT >return< TO QUIT (GOING BACK TO MAIN MENU) 


 <rdlist> : input index list is empty 


 LIST OF ATOMIC INDICES IS INCOMPREHENSIBLE


 ENTER A SET OF ATOMS TO WHICH YOU WANT TO ASSIGN BASIS SETS
 ( ATOMIC SET : all none <index list> <identifier> ) 
 TO OUTPUT ATOMIC SET SYNTAX ENTER A QUESTION MARK  ? 
 E.G.  all dz            (DZ BASIS FOR ALL ATOMS)
       all sto-3g hondo  (SCALED STO-3G)
       1,2,4-6 dzp       (DZP BASIS FOR ATOMS 1,2,4,5,6)
       "c" tz            (TZ BASIS FOR ALL CARBON ATOMS)
 ANY DISPLAY COMMAND  dis  MAY BE ENTERED OR YOU MAY 
 HIT >return< TO QUIT (GOING BACK TO MAIN MENU) 


 <rdlist> : input index list is empty 


 LIST OF ATOMIC INDICES IS INCOMPREHENSIBLE


 ENTER A SET OF ATOMS TO WHICH YOU WANT TO ASSIGN BASIS SETS
 ( ATOMIC SET : all none <index list> <identifier> ) 
 TO OUTPUT ATOMIC SET SYNTAX ENTER A QUESTION MARK  ? 
 E.G.  all dz            (DZ BASIS FOR ALL ATOMS)
       all sto-3g hondo  (SCALED STO-3G)
       1,2,4-6 dzp       (DZP BASIS FOR ATOMS 1,2,4,5,6)
       "c" tz            (TZ BASIS FOR ALL CARBON ATOMS)
 ANY DISPLAY COMMAND  dis  MAY BE ENTERED OR YOU MAY 
 HIT >return< TO QUIT (GOING BACK TO MAIN MENU) 


 <rdlist> : input index list is empty 


 LIST OF ATOMIC INDICES IS INCOMPREHENSIBLE


 ENTER A SET OF ATOMS TO WHICH YOU WANT TO ASSIGN BASIS SETS
 ( ATOMIC SET : all none <index list> <identifier> ) 
 TO OUTPUT ATOMIC SET SYNTAX ENTER A QUESTION MARK  ? 
 E.G.  all dz            (DZ BASIS FOR ALL ATOMS)
       all sto-3g hondo  (SCALED STO-3G)
       1,2,4-6 dzp       (DZP BASIS FOR ATOMS 1,2,4,5,6)
       "c" tz            (TZ BASIS FOR ALL CARBON ATOMS)
 ANY DISPLAY COMMAND  dis  MAY BE ENTERED OR YOU MAY 
 HIT >return< TO QUIT (GOING BACK TO MAIN MENU) 


 <rdlist> : input index list is empty 


 LIST OF ATOMIC INDICES IS INCOMPREHENSIBLE


 ENTER A SET OF ATOMS TO WHICH YOU WANT TO ASSIGN BASIS SETS
 ( ATOMIC SET : all none <index list> <identifier> ) 
 TO OUTPUT ATOMIC SET SYNTAX ENTER A QUESTION MARK  ? 
 E.G.  all dz            (DZ BASIS FOR ALL ATOMS)
       all sto-3g hondo  (SCALED STO-3G)
       1,2,4-6 dzp       (DZP BASIS FOR ATOMS 1,2,4,5,6)
       "c" tz            (TZ BASIS FOR ALL CARBON ATOMS)
 ANY DISPLAY COMMAND  dis  MAY BE ENTERED OR YOU MAY 
 HIT >return< TO QUIT (GOING BACK TO MAIN MENU) 


 <rdlist> : input index list is empty 


 LIST OF ATOMIC INDICES IS INCOMPREHENSIBLE


 ENTER A SET OF ATOMS TO WHICH YOU WANT TO ASSIGN BASIS SETS
 ( ATOMIC SET : all none <index list> <identifier> ) 
 TO OUTPUT ATOMIC SET SYNTAX ENTER A QUESTION MARK  ? 
 E.G.  all dz            (DZ BASIS FOR ALL ATOMS)
       all sto-3g hondo  (SCALED STO-3G)
       1,2,4-6 dzp       (DZP BASIS FOR ATOMS 1,2,4,5,6)
       "c" tz            (TZ BASIS FOR ALL CARBON ATOMS)
 ANY DISPLAY COMMAND  dis  MAY BE ENTERED OR YOU MAY 
 HIT >return< TO QUIT (GOING BACK TO MAIN MENU) 


 <rdlist> : input index list is empty 


 LIST OF ATOMIC INDICES IS INCOMPREHENSIBLE


 ENTER A SET OF ATOMS TO WHICH YOU WANT TO ASSIGN BASIS SETS
 ( ATOMIC SET : all none <index list> <identifier> ) 
 TO OUTPUT ATOMIC SET SYNTAX ENTER A QUESTION MARK  ? 
 E.G.  all dz            (DZ BASIS FOR ALL ATOMS)
       all sto-3g hondo  (SCALED STO-3G)
       1,2,4-6 dzp       (DZP BASIS FOR ATOMS 1,2,4,5,6)
       "c" tz            (TZ BASIS FOR ALL CARBON ATOMS)
 ANY DISPLAY COMMAND  dis  MAY BE ENTERED OR YOU MAY 
 HIT >return< TO QUIT (GOING BACK TO MAIN MENU) 


 <rdlist> : input index list is empty 


 LIST OF ATOMIC INDICES IS INCOMPREHENSIBLE


 ENTER A SET OF ATOMS TO WHICH YOU WANT TO ASSIGN BASIS SETS
 ( ATOMIC SET : all none <index list> <identifier> ) 
 TO OUTPUT ATOMIC SET SYNTAX ENTER A QUESTION MARK  ? 
 E.G.  all dz            (DZ BASIS FOR ALL ATOMS)
       all sto-3g hondo  (SCALED STO-3G)
       1,2,4-6 dzp       (DZP BASIS FOR ATOMS 1,2,4,5,6)
       "c" tz            (TZ BASIS FOR ALL CARBON ATOMS)
 ANY DISPLAY COMMAND  dis  MAY BE ENTERED OR YOU MAY 
 HIT >return< TO QUIT (GOING BACK TO MAIN MENU) 


 <rdlist> : input index list is empty 


 LIST OF ATOMIC INDICES IS INCOMPREHENSIBLE


 ENTER A SET OF ATOMS TO WHICH YOU WANT TO ASSIGN BASIS SETS
 ( ATOMIC SET : all none <index list> <identifier> ) 
 TO OUTPUT ATOMIC SET SYNTAX ENTER A QUESTION MARK  ? 
 E.G.  all dz            (DZ BASIS FOR ALL ATOMS)
       all sto-3g hondo  (SCALED STO-3G)
       1,2,4-6 dzp       (DZP BASIS FOR ATOMS 1,2,4,5,6)
       "c" tz            (TZ BASIS FOR ALL CARBON ATOMS)
 ANY DISPLAY COMMAND  dis  MAY BE ENTERED OR YOU MAY 
 HIT >return< TO QUIT (GOING BACK TO MAIN MENU) 


 <rdlist> : input index list is empty 


 LIST OF ATOMIC INDICES IS INCOMPREHENSIBLE


 ENTER A SET OF ATOMS TO WHICH YOU WANT TO ASSIGN BASIS SETS
 ( ATOMIC SET : all none <index list> <identifier> ) 
 TO OUTPUT ATOMIC SET SYNTAX ENTER A QUESTION MARK  ? 
 E.G.  all dz            (DZ BASIS FOR ALL ATOMS)
       all sto-3g hondo  (SCALED STO-3G)
       1,2,4-6 dzp       (DZP BASIS FOR ATOMS 1,2,4,5,6)
       "c" tz            (TZ BASIS FOR ALL CARBON ATOMS)
 ANY DISPLAY COMMAND  dis  MAY BE ENTERED OR YOU MAY 
 HIT >return< TO QUIT (GOING BACK TO MAIN MENU) 


 <rdlist> : input index list is empty 


 LIST OF ATOMIC INDICES IS INCOMPREHENSIBLE


 ENTER A SET OF ATOMS TO WHICH YOU WANT TO ASSIGN BASIS SETS
 ( ATOMIC SET : all none <index list> <identifier> ) 
 TO OUTPUT ATOMIC SET SYNTAX ENTER A QUESTION MARK  ? 
 E.G.  all dz            (DZ BASIS FOR ALL ATOMS)
       all sto-3g hondo  (SCALED STO-3G)
       1,2,4-6 dzp       (DZP BASIS FOR ATOMS 1,2,4,5,6)
       "c" tz            (TZ BASIS FOR ALL CARBON ATOMS)
 ANY DISPLAY COMMAND  dis  MAY BE ENTERED OR YOU MAY 
 HIT >return< TO QUIT (GOING BACK TO MAIN MENU) 


 <rdlist> : input index list is empty 


 LIST OF ATOMIC INDICES IS INCOMPREHENSIBLE


 ENTER A SET OF ATOMS TO WHICH YOU WANT TO ASSIGN BASIS SETS
 ( ATOMIC SET : all none <index list> <identifier> ) 
 TO OUTPUT ATOMIC SET SYNTAX ENTER A QUESTION MARK  ? 
 E.G.  all dz            (DZ BASIS FOR ALL ATOMS)
       all sto-3g hondo  (SCALED STO-3G)
       1,2,4-6 dzp       (DZP BASIS FOR ATOMS 1,2,4,5,6)
       "c" tz            (TZ BASIS FOR ALL CARBON ATOMS)
 ANY DISPLAY COMMAND  dis  MAY BE ENTERED OR YOU MAY 
 HIT >return< TO QUIT (GOING BACK TO MAIN MENU) 


 <rdlist> : input index list is empty 


 LIST OF ATOMIC INDICES IS INCOMPREHENSIBLE


 ENTER A SET OF ATOMS TO WHICH YOU WANT TO ASSIGN BASIS SETS
 ( ATOMIC SET : all none <index list> <identifier> ) 
 TO OUTPUT ATOMIC SET SYNTAX ENTER A QUESTION MARK  ? 
 E.G.  all dz            (DZ BASIS FOR ALL ATOMS)
       all sto-3g hondo  (SCALED STO-3G)
       1,2,4-6 dzp       (DZP BASIS FOR ATOMS 1,2,4,5,6)
       "c" tz            (TZ BASIS FOR ALL CARBON ATOMS)
 ANY DISPLAY COMMAND  dis  MAY BE ENTERED OR YOU MAY 
 HIT >return< TO QUIT (GOING BACK TO MAIN MENU) 


 <rdlist> : input index list is empty 


 LIST OF ATOMIC INDICES IS INCOMPREHENSIBLE


 ENTER A SET OF ATOMS TO WHICH YOU WANT TO ASSIGN BASIS SETS
 ( ATOMIC SET : all none <index list> <identifier> ) 
 TO OUTPUT ATOMIC SET SYNTAX ENTER A QUESTION MARK  ? 
 E.G.  all dz            (DZ BASIS FOR ALL ATOMS)
       all sto-3g hondo  (SCALED STO-3G)
       1,2,4-6 dzp       (DZP BASIS FOR ATOMS 1,2,4,5,6)
       "c" tz            (TZ BASIS FOR ALL CARBON ATOMS)
 ANY DISPLAY COMMAND  dis  MAY BE ENTERED OR YOU MAY 
 HIT >return< TO QUIT (GOING BACK TO MAIN MENU) 


 <rdlist> : input index list is empty 


 LIST OF ATOMIC INDICES IS INCOMPREHENSIBLE


 ENTER A SET OF ATOMS TO WHICH YOU WANT TO ASSIGN BASIS SETS
 ( ATOMIC SET : all none <index list> <identifier> ) 
 TO OUTPUT ATOMIC SET SYNTAX ENTER A QUESTION MARK  ? 
 E.G.  all dz            (DZ BASIS FOR ALL ATOMS)
       all sto-3g hondo  (SCALED STO-3G)
       1,2,4-6 dzp       (DZP BASIS FOR ATOMS 1,2,4,5,6)
       "c" tz            (TZ BASIS FOR ALL CARBON ATOMS)
 ANY DISPLAY COMMAND  dis  MAY BE ENTERED OR YOU MAY 
 HIT >return< TO QUIT (GOING BACK TO MAIN MENU) 


 <rdlist> : input index list is empty 


 LIST OF ATOMIC INDICES IS INCOMPREHENSIBLE


 ENTER A SET OF ATOMS TO WHICH YOU WANT TO ASSIGN BASIS SETS
 ( ATOMIC SET : all none <index list> <identifier> ) 
 TO OUTPUT ATOMIC SET SYNTAX ENTER A QUESTION MARK  ? 
 E.G.  all dz            (DZ BASIS FOR ALL ATOMS)
       all sto-3g hondo  (SCALED STO-3G)
       1,2,4-6 dzp       (DZP BASIS FOR ATOMS 1,2,4,5,6)
       "c" tz            (TZ BASIS FOR ALL CARBON ATOMS)
 ANY DISPLAY COMMAND  dis  MAY BE ENTERED OR YOU MAY 
 HIT >return< TO QUIT (GOING BACK TO MAIN MENU) 


 <rdlist> : input index list is empty 


 LIST OF ATOMIC INDICES IS INCOMPREHENSIBLE


 ENTER A SET OF ATOMS TO WHICH YOU WANT TO ASSIGN BASIS SETS
 ( ATOMIC SET : all none <index list> <identifier> ) 
 TO OUTPUT ATOMIC SET SYNTAX ENTER A QUESTION MARK  ? 
 E.G.  all dz            (DZ BASIS FOR ALL ATOMS)
       all sto-3g hondo  (SCALED STO-3G)
       1,2,4-6 dzp       (DZP BASIS FOR ATOMS 1,2,4,5,6)
       "c" tz            (TZ BASIS FOR ALL CARBON ATOMS)
 ANY DISPLAY COMMAND  dis  MAY BE ENTERED OR YOU MAY 
 HIT >return< TO QUIT (GOING BACK TO MAIN MENU) 


 <rdlist> : input index list is empty 


 LIST OF ATOMIC INDICES IS INCOMPREHENSIBLE


 ENTER A SET OF ATOMS TO WHICH YOU WANT TO ASSIGN BASIS SETS
 ( ATOMIC SET : all none <index list> <identifier> ) 
 TO OUTPUT ATOMIC SET SYNTAX ENTER A QUESTION MARK  ? 
 E.G.  all dz            (DZ BASIS FOR ALL ATOMS)
       all sto-3g hondo  (SCALED STO-3G)
       1,2,4-6 dzp       (DZP BASIS FOR ATOMS 1,2,4,5,6)
       "c" tz            (TZ BASIS FOR ALL CARBON ATOMS)
 ANY DISPLAY COMMAND  dis  MAY BE ENTERED OR YOU MAY 
 HIT >return< TO QUIT (GOING BACK TO MAIN MENU) 


 <rdlist> : input index list is empty 


 LIST OF ATOMIC INDICES IS INCOMPREHENSIBLE


 ENTER A SET OF ATOMS TO WHICH YOU WANT TO ASSIGN BASIS SETS
 ( ATOMIC SET : all none <index list> <identifier> ) 
 TO OUTPUT ATOMIC SET SYNTAX ENTER A QUESTION MARK  ? 
 E.G.  all dz            (DZ BASIS FOR ALL ATOMS)
       all sto-3g hondo  (SCALED STO-3G)
       1,2,4-6 dzp       (DZP BASIS FOR ATOMS 1,2,4,5,6)
       "c" tz            (TZ BASIS FOR ALL CARBON ATOMS)
 ANY DISPLAY COMMAND  dis  MAY BE ENTERED OR YOU MAY 
 HIT >return< TO QUIT (GOING BACK TO MAIN MENU) 


 <rdlist> : input index list is empty 


 LIST OF ATOMIC INDICES IS INCOMPREHENSIBLE


 ENTER A SET OF ATOMS TO WHICH YOU WANT TO ASSIGN BASIS SETS
 ( ATOMIC SET : all none <index list> <identifier> ) 
 TO OUTPUT ATOMIC SET SYNTAX ENTER A QUESTION MARK  ? 
 E.G.  all dz            (DZ BASIS FOR ALL ATOMS)
       all sto-3g hondo  (SCALED STO-3G)
       1,2,4-6 dzp       (DZP BASIS FOR ATOMS 1,2,4,5,6)
       "c" tz            (TZ BASIS FOR ALL CARBON ATOMS)
 ANY DISPLAY COMMAND  dis  MAY BE ENTERED OR YOU MAY 
 HIT >return< TO QUIT (GOING BACK TO MAIN MENU) 


 <rdlist> : input index list is empty 


 LIST OF ATOMIC INDICES IS INCOMPREHENSIBLE


 ENTER A SET OF ATOMS TO WHICH YOU WANT TO ASSIGN BASIS SETS
 ( ATOMIC SET : all none <index list> <identifier> ) 
 TO OUTPUT ATOMIC SET SYNTAX ENTER A QUESTION MARK  ? 
 E.G.  all dz            (DZ BASIS FOR ALL ATOMS)
       all sto-3g hondo  (SCALED STO-3G)
       1,2,4-6 dzp       (DZP BASIS FOR ATOMS 1,2,4,5,6)
       "c" tz            (TZ BASIS FOR ALL CARBON ATOMS)
 ANY DISPLAY COMMAND  dis  MAY BE ENTERED OR YOU MAY 
 HIT >return< TO QUIT (GOING BACK TO MAIN MENU) 


 <rdlist> : input index list is empty 


 LIST OF ATOMIC INDICES IS INCOMPREHENSIBLE


 ENTER A SET OF ATOMS TO WHICH YOU WANT TO ASSIGN BASIS SETS
 ( ATOMIC SET : all none <index list> <identifier> ) 
 TO OUTPUT ATOMIC SET SYNTAX ENTER A QUESTION MARK  ? 
 E.G.  all dz            (DZ BASIS FOR ALL ATOMS)
       all sto-3g hondo  (SCALED STO-3G)
       1,2,4-6 dzp       (DZP BASIS FOR ATOMS 1,2,4,5,6)
       "c" tz            (TZ BASIS FOR ALL CARBON ATOMS)
 ANY DISPLAY COMMAND  dis  MAY BE ENTERED OR YOU MAY 
 HIT >return< TO QUIT (GOING BACK TO MAIN MENU) 


========================
 internal module stack: 
------------------------
    define
    abcspy
========================

  DUE TO USER SIGNAL ! 
 define ended abnormally
